Program Version,EnergyPlus, Version 8.5.0-c87e61b44b, YMD=2019.12.08 21:14
1,5,Environment Title[],Latitude[deg],Longitude[deg],Time Zone[],Elevation[m]
2,6,Day of Simulation[],Month[],Day of Month[],DST Indicator[1=yes 0=no],Hour[],StartMinute[],EndMinute[],DayType
3,3,Cumulative Day of Simulation[],Month[],Day of Month[],DST Indicator[1=yes 0=no],DayType  ! When Daily Meters Requested
4,2,Cumulative Days of Simulation[],Month[]  ! When Monthly Meters Requested
5,1,Cumulative Days of Simulation[] ! When Run Period Meters Requested
9,1,Electricity:Facility [J] !TimeStep
407,1,DistrictCooling:Facility [J] !TimeStep
376,1,DistrictHeating:Facility [J] !TimeStep
End of Data Dictionary
1,ACAPULCO ANN CLG .4% CONDNS DB=>MWB,  16.77, -99.75,  -6.00,   5.00
2,1, 8,21, 0, 1, 0.00,15.00,SummerDesignDay
9,17354803.4596069
376,0.0
407,0.0
2,1, 8,21, 0, 1,15.00,30.00,SummerDesignDay
9,17354803.4596069
376,0.0
407,0.0
2,1, 8,21, 0, 1,30.00,45.00,SummerDesignDay
9,17354803.4596069
376,0.0
407,0.0
2,1, 8,21, 0, 1,45.00,60.00,SummerDesignDay
9,17354803.4596069
376,0.0
407,0.0
2,1, 8,21, 0, 2, 0.00,15.00,SummerDesignDay
9,17354803.4596069
376,0.0
407,0.0
2,1, 8,21, 0, 2,15.00,30.00,SummerDesignDay
9,17354803.4596069
376,0.0
407,0.0
2,1, 8,21, 0, 2,30.00,45.00,SummerDesignDay
9,17354803.4596069
376,0.0
407,0.0
2,1, 8,21, 0, 2,45.00,60.00,SummerDesignDay
9,17354803.4596069
376,0.0
407,0.0
2,1, 8,21, 0, 3, 0.00,15.00,SummerDesignDay
9,17354803.4596069
376,0.0
407,0.0
2,1, 8,21, 0, 3,15.00,30.00,SummerDesignDay
9,17354803.4596069
376,0.0
407,0.0
2,1, 8,21, 0, 3,30.00,45.00,SummerDesignDay
9,17354803.4596069
376,0.0
407,0.0
2,1, 8,21, 0, 3,45.00,60.00,SummerDesignDay
9,17354803.4596069
376,0.0
407,0.0
2,1, 8,21, 0, 4, 0.00,15.00,SummerDesignDay
9,17354803.4596069
376,0.0
407,0.0
2,1, 8,21, 0, 4,15.00,30.00,SummerDesignDay
9,17354803.4596069
376,0.0
407,0.0
2,1, 8,21, 0, 4,30.00,45.00,SummerDesignDay
9,17354803.4596069
376,0.0
407,0.0
2,1, 8,21, 0, 4,45.00,60.00,SummerDesignDay
9,17354803.4596069
376,0.0
407,0.0
2,1, 8,21, 0, 5, 0.00,15.00,SummerDesignDay
9,17354803.4596069
376,0.0
407,0.0
2,1, 8,21, 0, 5,15.00,30.00,SummerDesignDay
9,17354803.4596069
376,0.0
407,0.0
2,1, 8,21, 0, 5,30.00,45.00,SummerDesignDay
9,17354803.4596069
376,0.0
407,0.0
2,1, 8,21, 0, 5,45.00,60.00,SummerDesignDay
9,17354803.4596069
376,0.0
407,0.0
2,1, 8,21, 0, 6, 0.00,15.00,SummerDesignDay
9,17354803.4596069
376,0.0
407,0.0
2,1, 8,21, 0, 6,15.00,30.00,SummerDesignDay
9,17354803.4596069
376,0.0
407,0.0
2,1, 8,21, 0, 6,30.00,45.00,SummerDesignDay
9,17354803.4596069
376,0.0
407,0.0
2,1, 8,21, 0, 6,45.00,60.00,SummerDesignDay
9,17354803.4596069
376,0.0
407,0.0
2,1, 8,21, 0, 7, 0.00,15.00,SummerDesignDay
9,17354803.4596069
376,0.0
407,197264219.191555
2,1, 8,21, 0, 7,15.00,30.00,SummerDesignDay
9,17354803.4596069
376,0.0
407,50368507.4482075
2,1, 8,21, 0, 7,30.00,45.00,SummerDesignDay
9,17354803.4596069
376,0.0
407,103581214.075179
2,1, 8,21, 0, 7,45.00,60.00,SummerDesignDay
9,17354803.4596069
376,0.0
407,58654611.0055636
2,1, 8,21, 0, 8, 0.00,15.00,SummerDesignDay
9,17354803.4596069
376,0.0
407,60623272.998772
2,1, 8,21, 0, 8,15.00,30.00,SummerDesignDay
9,17354803.4596069
376,0.0
407,59824402.9531958
2,1, 8,21, 0, 8,30.00,45.00,SummerDesignDay
9,17354803.4596069
376,0.0
407,59089172.4465391
2,1, 8,21, 0, 8,45.00,60.00,SummerDesignDay
9,17354803.4596069
376,0.0
407,58604588.7512369
2,1, 8,21, 0, 9, 0.00,15.00,SummerDesignDay
9,17354803.4596069
376,0.0
407,58506230.5999644
2,1, 8,21, 0, 9,15.00,30.00,SummerDesignDay
9,17354803.4596069
376,0.0
407,58612361.8865876
2,1, 8,21, 0, 9,30.00,45.00,SummerDesignDay
9,17354803.4596069
376,0.0
407,58868017.9900443
2,1, 8,21, 0, 9,45.00,60.00,SummerDesignDay
9,17354803.4596069
376,0.0
407,59247653.0867287
2,1, 8,21, 0,10, 0.00,15.00,SummerDesignDay
9,17354803.4596069
376,0.0
407,59682888.4189554
2,1, 8,21, 0,10,15.00,30.00,SummerDesignDay
9,17354803.4596069
376,0.0
407,60164731.1757719
2,1, 8,21, 0,10,30.00,45.00,SummerDesignDay
9,17354803.4596069
376,0.0
407,60699843.4401148
2,1, 8,21, 0,10,45.00,60.00,SummerDesignDay
9,17354803.4596069
376,0.0
407,61290823.2913162
2,1, 8,21, 0,11, 0.00,15.00,SummerDesignDay
9,17354803.4596069
376,0.0
407,61799270.1048481
2,1, 8,21, 0,11,15.00,30.00,SummerDesignDay
9,17354803.4596069
376,0.0
407,62314586.46259
2,1, 8,21, 0,11,30.00,45.00,SummerDesignDay
9,17354803.4596069
376,0.0
407,62825028.1913005
2,1, 8,21, 0,11,45.00,60.00,SummerDesignDay
9,17354803.4596069
376,0.0
407,63483677.4780704
2,1, 8,21, 0,12, 0.00,15.00,SummerDesignDay
9,17354803.4596069
376,0.0
407,64105847.4477499
2,1, 8,21, 0,12,15.00,30.00,SummerDesignDay
9,17354803.4596069
376,0.0
407,64805184.9722891
2,1, 8,21, 0,12,30.00,45.00,SummerDesignDay
9,17354803.4596069
376,0.0
407,65524596.8812229
2,1, 8,21, 0,12,45.00,60.00,SummerDesignDay
9,17354803.4596069
376,0.0
407,66241726.22147
2,1, 8,21, 0,13, 0.00,15.00,SummerDesignDay
9,17354803.4596069
376,0.0
407,66835358.4250147
2,1, 8,21, 0,13,15.00,30.00,SummerDesignDay
9,17354803.4596069
376,0.0
407,67411015.761742
2,1, 8,21, 0,13,30.00,45.00,SummerDesignDay
9,17354803.4596069
376,0.0
407,68289651.5648107
2,1, 8,21, 0,13,45.00,60.00,SummerDesignDay
9,17354803.4596069
376,0.0
407,69245315.5936692
2,1, 8,21, 0,14, 0.00,15.00,SummerDesignDay
9,17354803.4596069
376,0.0
407,70076587.7566679
2,1, 8,21, 0,14,15.00,30.00,SummerDesignDay
9,17354803.4596069
376,0.0
407,70899567.5827009
2,1, 8,21, 0,14,30.00,45.00,SummerDesignDay
9,17354803.4596069
376,0.0
407,71700133.5004816
2,1, 8,21, 0,14,45.00,60.00,SummerDesignDay
9,17354803.4596069
376,0.0
407,72499954.3140302
2,1, 8,21, 0,15, 0.00,15.00,SummerDesignDay
9,17354803.4596069
376,0.0
407,73001364.1111611
2,1, 8,21, 0,15,15.00,30.00,SummerDesignDay
9,17354803.4596069
376,0.0
407,73443047.4219759
2,1, 8,21, 0,15,30.00,45.00,SummerDesignDay
9,17354803.4596069
376,0.0
407,74140564.6988932
2,1, 8,21, 0,15,45.00,60.00,SummerDesignDay
9,17354803.4596069
376,0.0
407,74978176.8938353
2,1, 8,21, 0,16, 0.00,15.00,SummerDesignDay
9,17354803.4596069
376,0.0
407,75508294.2478437
2,1, 8,21, 0,16,15.00,30.00,SummerDesignDay
9,17354803.4596069
376,0.0
407,75978698.339431
2,1, 8,21, 0,16,30.00,45.00,SummerDesignDay
9,17354803.4596069
376,0.0
407,76397950.6040753
2,1, 8,21, 0,16,45.00,60.00,SummerDesignDay
9,17354803.4596069
376,0.0
407,76760916.7179433
2,1, 8,21, 0,17, 0.00,15.00,SummerDesignDay
9,17354803.4596069
376,0.0
407,76932432.260047
2,1, 8,21, 0,17,15.00,30.00,SummerDesignDay
9,17354803.4596069
376,0.0
407,76934982.3919537
2,1, 8,21, 0,17,30.00,45.00,SummerDesignDay
9,17354803.4596069
376,0.0
407,76850515.6563054
2,1, 8,21, 0,17,45.00,60.00,SummerDesignDay
9,17354803.4596069
376,0.0
407,76649014.8489844
2,1, 8,21, 0,18, 0.00,15.00,SummerDesignDay
9,17354803.4596069
376,0.0
407,76182439.9557668
2,1, 8,21, 0,18,15.00,30.00,SummerDesignDay
9,17354803.4596069
376,0.0
407,75501342.514604
2,1, 8,21, 0,18,30.00,45.00,SummerDesignDay
9,17354803.4596069
376,0.0
407,74572224.9711678
2,1, 8,21, 0,18,45.00,60.00,SummerDesignDay
9,17354803.4596069
376,0.0
407,73351854.9493422
2,1, 8,21, 0,19, 0.00,15.00,SummerDesignDay
9,17354803.4596069
376,0.0
407,71372776.7722292
2,1, 8,21, 0,19,15.00,30.00,SummerDesignDay
9,17354803.4596069
376,0.0
407,69009586.2803859
2,1, 8,21, 0,19,30.00,45.00,SummerDesignDay
9,17354803.4596069
376,0.0
407,65876592.3899077
2,1, 8,21, 0,19,45.00,60.00,SummerDesignDay
9,17354803.4596069
376,0.0
407,62316427.2953
2,1, 8,21, 0,20, 0.00,15.00,SummerDesignDay
9,17354803.4596069
376,0.0
407,59941579.8539783
2,1, 8,21, 0,20,15.00,30.00,SummerDesignDay
9,17354803.4596069
376,0.0
407,58016422.8197824
2,1, 8,21, 0,20,30.00,45.00,SummerDesignDay
9,17354803.4596069
376,0.0
407,56236680.3046225
2,1, 8,21, 0,20,45.00,60.00,SummerDesignDay
9,17354803.4596069
376,0.0
407,54548745.5343264
2,1, 8,21, 0,21, 0.00,15.00,SummerDesignDay
9,17354803.4596069
376,0.0
407,53029223.8199789
2,1, 8,21, 0,21,15.00,30.00,SummerDesignDay
9,17354803.4596069
376,0.0
407,51578321.4940244
2,1, 8,21, 0,21,30.00,45.00,SummerDesignDay
9,17354803.4596069
376,0.0
407,50185737.3749364
2,1, 8,21, 0,21,45.00,60.00,SummerDesignDay
9,17354803.4596069
376,0.0
407,48846375.0055745
2,1, 8,21, 0,22, 0.00,15.00,SummerDesignDay
9,17354803.4596069
376,0.0
407,47544669.121798
2,1, 8,21, 0,22,15.00,30.00,SummerDesignDay
9,17354803.4596069
376,0.0
407,46272181.0888374
2,1, 8,21, 0,22,30.00,45.00,SummerDesignDay
9,17354803.4596069
376,0.0
407,45029332.4969314
2,1, 8,21, 0,22,45.00,60.00,SummerDesignDay
9,17354803.4596069
376,0.0
407,44441678.3700199
2,1, 8,21, 0,23, 0.00,15.00,SummerDesignDay
9,17354803.4596069
376,0.0
407,0.0
2,1, 8,21, 0,23,15.00,30.00,SummerDesignDay
9,17354803.4596069
376,0.0
407,0.0
2,1, 8,21, 0,23,30.00,45.00,SummerDesignDay
9,17354803.4596069
376,0.0
407,0.0
2,1, 8,21, 0,23,45.00,60.00,SummerDesignDay
9,17354803.4596069
376,0.0
407,0.0
2,1, 8,21, 0,24, 0.00,15.00,SummerDesignDay
9,17354803.4596069
376,0.0
407,0.0
2,1, 8,21, 0,24,15.00,30.00,SummerDesignDay
9,17354803.4596069
376,0.0
407,0.0
2,1, 8,21, 0,24,30.00,45.00,SummerDesignDay
9,17354803.4596069
376,0.0
407,0.0
2,1, 8,21, 0,24,45.00,60.00,SummerDesignDay
9,17354803.4596069
376,0.0
407,0.0
1,ACAPULCO ANN CLG .4% CONDNS DP=>MDB,  16.77, -99.75,  -6.00,   5.00
2,1, 8,21, 0, 1, 0.00,15.00,SummerDesignDay
9,17354803.4596069
376,0.0
407,0.0
2,1, 8,21, 0, 1,15.00,30.00,SummerDesignDay
9,17354803.4596069
376,0.0
407,0.0
2,1, 8,21, 0, 1,30.00,45.00,SummerDesignDay
9,17354803.4596069
376,0.0
407,0.0
2,1, 8,21, 0, 1,45.00,60.00,SummerDesignDay
9,17354803.4596069
376,0.0
407,0.0
2,1, 8,21, 0, 2, 0.00,15.00,SummerDesignDay
9,17354803.4596069
376,0.0
407,0.0
2,1, 8,21, 0, 2,15.00,30.00,SummerDesignDay
9,17354803.4596069
376,0.0
407,0.0
2,1, 8,21, 0, 2,30.00,45.00,SummerDesignDay
9,17354803.4596069
376,0.0
407,0.0
2,1, 8,21, 0, 2,45.00,60.00,SummerDesignDay
9,17354803.4596069
376,0.0
407,0.0
2,1, 8,21, 0, 3, 0.00,15.00,SummerDesignDay
9,17354803.4596069
376,0.0
407,0.0
2,1, 8,21, 0, 3,15.00,30.00,SummerDesignDay
9,17354803.4596069
376,0.0
407,0.0
2,1, 8,21, 0, 3,30.00,45.00,SummerDesignDay
9,17354803.4596069
376,0.0
407,0.0
2,1, 8,21, 0, 3,45.00,60.00,SummerDesignDay
9,17354803.4596069
376,0.0
407,0.0
2,1, 8,21, 0, 4, 0.00,15.00,SummerDesignDay
9,17354803.4596069
376,0.0
407,0.0
2,1, 8,21, 0, 4,15.00,30.00,SummerDesignDay
9,17354803.4596069
376,0.0
407,0.0
2,1, 8,21, 0, 4,30.00,45.00,SummerDesignDay
9,17354803.4596069
376,0.0
407,0.0
2,1, 8,21, 0, 4,45.00,60.00,SummerDesignDay
9,17354803.4596069
376,0.0
407,0.0
2,1, 8,21, 0, 5, 0.00,15.00,SummerDesignDay
9,17354803.4596069
376,0.0
407,0.0
2,1, 8,21, 0, 5,15.00,30.00,SummerDesignDay
9,17354803.4596069
376,0.0
407,0.0
2,1, 8,21, 0, 5,30.00,45.00,SummerDesignDay
9,17354803.4596069
376,0.0
407,0.0
2,1, 8,21, 0, 5,45.00,60.00,SummerDesignDay
9,17354803.4596069
376,0.0
407,0.0
2,1, 8,21, 0, 6, 0.00,15.00,SummerDesignDay
9,17354803.4596069
376,0.0
407,0.0
2,1, 8,21, 0, 6,15.00,30.00,SummerDesignDay
9,17354803.4596069
376,0.0
407,0.0
2,1, 8,21, 0, 6,30.00,45.00,SummerDesignDay
9,17354803.4596069
376,0.0
407,0.0
2,1, 8,21, 0, 6,45.00,60.00,SummerDesignDay
9,17354803.4596069
376,0.0
407,0.0
2,1, 8,21, 0, 7, 0.00,15.00,SummerDesignDay
9,17354803.4596069
376,0.0
407,90741730.5018969
2,1, 8,21, 0, 7,15.00,30.00,SummerDesignDay
9,17354803.4596069
376,0.0
407,0.0
2,1, 8,21, 0, 7,30.00,45.00,SummerDesignDay
9,17354803.4596069
376,0.0
407,30229084.7401741
2,1, 8,21, 0, 7,45.00,60.00,SummerDesignDay
9,17354803.4596069
376,0.0
407,52628996.3209948
2,1, 8,21, 0, 8, 0.00,15.00,SummerDesignDay
9,17354803.4596069
376,0.0
407,37782258.9653465
2,1, 8,21, 0, 8,15.00,30.00,SummerDesignDay
9,17354803.4596069
376,0.0
407,41869540.3240993
2,1, 8,21, 0, 8,30.00,45.00,SummerDesignDay
9,17354803.4596069
376,0.0
407,42919943.0828433
2,1, 8,21, 0, 8,45.00,60.00,SummerDesignDay
9,17354803.4596069
376,0.0
407,43800141.0246276
2,1, 8,21, 0, 9, 0.00,15.00,SummerDesignDay
9,17354803.4596069
376,0.0
407,44863180.0466838
2,1, 8,21, 0, 9,15.00,30.00,SummerDesignDay
9,17354803.4596069
376,0.0
407,46145576.8787464
2,1, 8,21, 0, 9,30.00,45.00,SummerDesignDay
9,17354803.4596069
376,0.0
407,47432085.3914014
2,1, 8,21, 0, 9,45.00,60.00,SummerDesignDay
9,17354803.4596069
376,0.0
407,48671506.171838
2,1, 8,21, 0,10, 0.00,15.00,SummerDesignDay
9,17354803.4596069
376,0.0
407,49819764.5902417
2,1, 8,21, 0,10,15.00,30.00,SummerDesignDay
9,17354803.4596069
376,0.0
407,50872009.2748389
2,1, 8,21, 0,10,30.00,45.00,SummerDesignDay
9,17354803.4596069
376,0.0
407,51816092.6139646
2,1, 8,21, 0,10,45.00,60.00,SummerDesignDay
9,17354803.4596069
376,0.0
407,52683403.4176685
2,1, 8,21, 0,11, 0.00,15.00,SummerDesignDay
9,17354803.4596069
376,0.0
407,53352291.9041296
2,1, 8,21, 0,11,15.00,30.00,SummerDesignDay
9,17354803.4596069
376,0.0
407,53941669.6203233
2,1, 8,21, 0,11,30.00,45.00,SummerDesignDay
9,17354803.4596069
376,0.0
407,54453843.1579466
2,1, 8,21, 0,11,45.00,60.00,SummerDesignDay
9,17354803.4596069
376,0.0
407,55087328.8558651
2,1, 8,21, 0,12, 0.00,15.00,SummerDesignDay
9,17354803.4596069
376,0.0
407,55665364.0164806
2,1, 8,21, 0,12,15.00,30.00,SummerDesignDay
9,17354803.4596069
376,0.0
407,56304698.023151
2,1, 8,21, 0,12,30.00,45.00,SummerDesignDay
9,17354803.4596069
376,0.0
407,56947359.3152488
2,1, 8,21, 0,12,45.00,60.00,SummerDesignDay
9,17354803.4596069
376,0.0
407,58173189.7335207
2,1, 8,21, 0,13, 0.00,15.00,SummerDesignDay
9,17354803.4596069
376,0.0
407,58921242.708062
2,1, 8,21, 0,13,15.00,30.00,SummerDesignDay
9,17354803.4596069
376,0.0
407,59581078.5601917
2,1, 8,21, 0,13,30.00,45.00,SummerDesignDay
9,17354803.4596069
376,0.0
407,60392090.6058685
2,1, 8,21, 0,13,45.00,60.00,SummerDesignDay
9,17354803.4596069
376,0.0
407,61227359.2584498
2,1, 8,21, 0,14, 0.00,15.00,SummerDesignDay
9,17354803.4596069
376,0.0
407,61935377.143224
2,1, 8,21, 0,14,15.00,30.00,SummerDesignDay
9,17354803.4596069
376,0.0
407,62655232.4884289
2,1, 8,21, 0,14,30.00,45.00,SummerDesignDay
9,17354803.4596069
376,0.0
407,63378746.246424
2,1, 8,21, 0,14,45.00,60.00,SummerDesignDay
9,17354803.4596069
376,0.0
407,64094193.5961457
2,1, 8,21, 0,15, 0.00,15.00,SummerDesignDay
9,17354803.4596069
376,0.0
407,64481515.8681026
2,1, 8,21, 0,15,15.00,30.00,SummerDesignDay
9,17354803.4596069
376,0.0
407,64833561.5483399
2,1, 8,21, 0,15,30.00,45.00,SummerDesignDay
9,17354803.4596069
376,0.0
407,65464914.4946105
2,1, 8,21, 0,15,45.00,60.00,SummerDesignDay
9,17354803.4596069
376,0.0
407,66246695.2218804
2,1, 8,21, 0,16, 0.00,15.00,SummerDesignDay
9,17354803.4596069
376,0.0
407,66666186.8092177
2,1, 8,21, 0,16,15.00,30.00,SummerDesignDay
9,17354803.4596069
376,0.0
407,67037550.842811
2,1, 8,21, 0,16,30.00,45.00,SummerDesignDay
9,17354803.4596069
376,0.0
407,67366811.1281946
2,1, 8,21, 0,16,45.00,60.00,SummerDesignDay
9,17354803.4596069
376,0.0
407,67652202.3394135
2,1, 8,21, 0,17, 0.00,15.00,SummerDesignDay
9,17354803.4596069
376,0.0
407,67747360.3937304
2,1, 8,21, 0,17,15.00,30.00,SummerDesignDay
9,17354803.4596069
376,0.0
407,67689056.5002478
2,1, 8,21, 0,17,30.00,45.00,SummerDesignDay
9,17354803.4596069
376,0.0
407,67568077.1861293
2,1, 8,21, 0,17,45.00,60.00,SummerDesignDay
9,17354803.4596069
376,0.0
407,67353777.0391292
2,1, 8,21, 0,18, 0.00,15.00,SummerDesignDay
9,17354803.4596069
376,0.0
407,66888918.243426
2,1, 8,21, 0,18,15.00,30.00,SummerDesignDay
9,17354803.4596069
376,0.0
407,66235799.5108768
2,1, 8,21, 0,18,30.00,45.00,SummerDesignDay
9,17354803.4596069
376,0.0
407,65366662.3669863
2,1, 8,21, 0,18,45.00,60.00,SummerDesignDay
9,17354803.4596069
376,0.0
407,64239409.9703902
2,1, 8,21, 0,19, 0.00,15.00,SummerDesignDay
9,17354803.4596069
376,0.0
407,62367133.8676414
2,1, 8,21, 0,19,15.00,30.00,SummerDesignDay
9,17354803.4596069
376,0.0
407,60164456.822039
2,1, 8,21, 0,19,30.00,45.00,SummerDesignDay
9,17354803.4596069
376,0.0
407,57242445.1429335
2,1, 8,21, 0,19,45.00,60.00,SummerDesignDay
9,17354803.4596069
376,0.0
407,53972768.850587
2,1, 8,21, 0,20, 0.00,15.00,SummerDesignDay
9,17354803.4596069
376,0.0
407,52035868.4609732
2,1, 8,21, 0,20,15.00,30.00,SummerDesignDay
9,17354803.4596069
376,0.0
407,50598382.0265376
2,1, 8,21, 0,20,30.00,45.00,SummerDesignDay
9,17354803.4596069
376,0.0
407,49280201.1368558
2,1, 8,21, 0,20,45.00,60.00,SummerDesignDay
9,17354803.4596069
376,0.0
407,48001185.2220248
2,1, 8,21, 0,21, 0.00,15.00,SummerDesignDay
9,17354803.4596069
376,0.0
407,46867607.3142685
2,1, 8,21, 0,21,15.00,30.00,SummerDesignDay
9,17354803.4596069
376,0.0
407,45760337.8778657
2,1, 8,21, 0,21,30.00,45.00,SummerDesignDay
9,17354803.4596069
376,0.0
407,44671958.920752
2,1, 8,21, 0,21,45.00,60.00,SummerDesignDay
9,17354803.4596069
376,0.0
407,43602849.588798
2,1, 8,21, 0,22, 0.00,15.00,SummerDesignDay
9,17354803.4596069
376,0.0
407,42553409.9861711
2,1, 8,21, 0,22,15.00,30.00,SummerDesignDay
9,17354803.4596069
376,0.0
407,41522383.8072566
2,1, 8,21, 0,22,30.00,45.00,SummerDesignDay
9,17354803.4596069
376,0.0
407,40499907.5446662
2,1, 8,21, 0,22,45.00,60.00,SummerDesignDay
9,17354803.4596069
376,0.0
407,39469523.3507482
2,1, 8,21, 0,23, 0.00,15.00,SummerDesignDay
9,17354803.4596069
376,0.0
407,0.0
2,1, 8,21, 0,23,15.00,30.00,SummerDesignDay
9,17354803.4596069
376,0.0
407,0.0
2,1, 8,21, 0,23,30.00,45.00,SummerDesignDay
9,17354803.4596069
376,0.0
407,0.0
2,1, 8,21, 0,23,45.00,60.00,SummerDesignDay
9,17354803.4596069
376,0.0
407,0.0
2,1, 8,21, 0,24, 0.00,15.00,SummerDesignDay
9,17354803.4596069
376,0.0
407,0.0
2,1, 8,21, 0,24,15.00,30.00,SummerDesignDay
9,17354803.4596069
376,0.0
407,0.0
2,1, 8,21, 0,24,30.00,45.00,SummerDesignDay
9,17354803.4596069
376,0.0
407,0.0
2,1, 8,21, 0,24,45.00,60.00,SummerDesignDay
9,17354803.4596069
376,0.0
407,0.0
1,ACAPULCO ANN CLG .4% CONDNS ENTH=>MDB,  16.77, -99.75,  -6.00,   5.00
2,1, 8,21, 0, 1, 0.00,15.00,SummerDesignDay
9,17354803.4596069
376,0.0
407,0.0
2,1, 8,21, 0, 1,15.00,30.00,SummerDesignDay
9,17354803.4596069
376,0.0
407,0.0
2,1, 8,21, 0, 1,30.00,45.00,SummerDesignDay
9,17354803.4596069
376,0.0
407,0.0
2,1, 8,21, 0, 1,45.00,60.00,SummerDesignDay
9,17354803.4596069
376,0.0
407,0.0
2,1, 8,21, 0, 2, 0.00,15.00,SummerDesignDay
9,17354803.4596069
376,0.0
407,0.0
2,1, 8,21, 0, 2,15.00,30.00,SummerDesignDay
9,17354803.4596069
376,0.0
407,0.0
2,1, 8,21, 0, 2,30.00,45.00,SummerDesignDay
9,17354803.4596069
376,0.0
407,0.0
2,1, 8,21, 0, 2,45.00,60.00,SummerDesignDay
9,17354803.4596069
376,0.0
407,0.0
2,1, 8,21, 0, 3, 0.00,15.00,SummerDesignDay
9,17354803.4596069
376,0.0
407,0.0
2,1, 8,21, 0, 3,15.00,30.00,SummerDesignDay
9,17354803.4596069
376,0.0
407,0.0
2,1, 8,21, 0, 3,30.00,45.00,SummerDesignDay
9,17354803.4596069
376,0.0
407,0.0
2,1, 8,21, 0, 3,45.00,60.00,SummerDesignDay
9,17354803.4596069
376,0.0
407,0.0
2,1, 8,21, 0, 4, 0.00,15.00,SummerDesignDay
9,17354803.4596069
376,0.0
407,0.0
2,1, 8,21, 0, 4,15.00,30.00,SummerDesignDay
9,17354803.4596069
376,0.0
407,0.0
2,1, 8,21, 0, 4,30.00,45.00,SummerDesignDay
9,17354803.4596069
376,0.0
407,0.0
2,1, 8,21, 0, 4,45.00,60.00,SummerDesignDay
9,17354803.4596069
376,0.0
407,0.0
2,1, 8,21, 0, 5, 0.00,15.00,SummerDesignDay
9,17354803.4596069
376,0.0
407,0.0
2,1, 8,21, 0, 5,15.00,30.00,SummerDesignDay
9,17354803.4596069
376,0.0
407,0.0
2,1, 8,21, 0, 5,30.00,45.00,SummerDesignDay
9,17354803.4596069
376,0.0
407,0.0
2,1, 8,21, 0, 5,45.00,60.00,SummerDesignDay
9,17354803.4596069
376,0.0
407,0.0
2,1, 8,21, 0, 6, 0.00,15.00,SummerDesignDay
9,17354803.4596069
376,0.0
407,0.0
2,1, 8,21, 0, 6,15.00,30.00,SummerDesignDay
9,17354803.4596069
376,0.0
407,0.0
2,1, 8,21, 0, 6,30.00,45.00,SummerDesignDay
9,17354803.4596069
376,0.0
407,0.0
2,1, 8,21, 0, 6,45.00,60.00,SummerDesignDay
9,17354803.4596069
376,0.0
407,0.0
2,1, 8,21, 0, 7, 0.00,15.00,SummerDesignDay
9,17354803.4596069
376,0.0
407,172768808.898686
2,1, 8,21, 0, 7,15.00,30.00,SummerDesignDay
9,17354803.4596069
376,0.0
407,44686156.595555
2,1, 8,21, 0, 7,30.00,45.00,SummerDesignDay
9,17354803.4596069
376,0.0
407,93162869.4076625
2,1, 8,21, 0, 7,45.00,60.00,SummerDesignDay
9,17354803.4596069
376,0.0
407,54037326.8827512
2,1, 8,21, 0, 8, 0.00,15.00,SummerDesignDay
9,17354803.4596069
376,0.0
407,56747951.516488
2,1, 8,21, 0, 8,15.00,30.00,SummerDesignDay
9,17354803.4596069
376,0.0
407,56790930.5584976
2,1, 8,21, 0, 8,30.00,45.00,SummerDesignDay
9,17354803.4596069
376,0.0
407,56825549.4885364
2,1, 8,21, 0, 8,45.00,60.00,SummerDesignDay
9,17354803.4596069
376,0.0
407,57040327.6948682
2,1, 8,21, 0, 9, 0.00,15.00,SummerDesignDay
9,17354803.4596069
376,0.0
407,57617044.2316919
2,1, 8,21, 0, 9,15.00,30.00,SummerDesignDay
9,17354803.4596069
376,0.0
407,58385243.3058542
2,1, 8,21, 0, 9,30.00,45.00,SummerDesignDay
9,17354803.4596069
376,0.0
407,59307855.4909089
2,1, 8,21, 0, 9,45.00,60.00,SummerDesignDay
9,17354803.4596069
376,0.0
407,60371055.8700034
2,1, 8,21, 0,10, 0.00,15.00,SummerDesignDay
9,17354803.4596069
376,0.0
407,61492288.2636909
2,1, 8,21, 0,10,15.00,30.00,SummerDesignDay
9,17354803.4596069
376,0.0
407,62665124.6406449
2,1, 8,21, 0,10,30.00,45.00,SummerDesignDay
9,17354803.4596069
376,0.0
407,63899482.9962355
2,1, 8,21, 0,10,45.00,60.00,SummerDesignDay
9,17354803.4596069
376,0.0
407,65207967.3648691
2,1, 8,21, 0,11, 0.00,15.00,SummerDesignDay
9,17354803.4596069
376,0.0
407,66423909.4302527
2,1, 8,21, 0,11,15.00,30.00,SummerDesignDay
9,17354803.4596069
376,0.0
407,67653073.917505
2,1, 8,21, 0,11,30.00,45.00,SummerDesignDay
9,17354803.4596069
376,0.0
407,68871518.3002488
2,1, 8,21, 0,11,45.00,60.00,SummerDesignDay
9,17354803.4596069
376,0.0
407,70279458.4801996
2,1, 8,21, 0,12, 0.00,15.00,SummerDesignDay
9,17354803.4596069
376,0.0
407,71644242.2291708
2,1, 8,21, 0,12,15.00,30.00,SummerDesignDay
9,17354803.4596069
376,0.0
407,73084544.4121014
2,1, 8,21, 0,12,30.00,45.00,SummerDesignDay
9,17354803.4596069
376,0.0
407,74517144.6075736
2,1, 8,21, 0,12,45.00,60.00,SummerDesignDay
9,17354803.4596069
376,0.0
407,75916748.7620834
2,1, 8,21, 0,13, 0.00,15.00,SummerDesignDay
9,17354803.4596069
376,0.0
407,77136146.8141886
2,1, 8,21, 0,13,15.00,30.00,SummerDesignDay
9,17354803.4596069
376,0.0
407,78307819.1421542
2,1, 8,21, 0,13,30.00,45.00,SummerDesignDay
9,17354803.4596069
376,0.0
407,79490697.3878701
2,1, 8,21, 0,13,45.00,60.00,SummerDesignDay
9,17354803.4596069
376,0.0
407,80744638.6634526
2,1, 8,21, 0,14, 0.00,15.00,SummerDesignDay
9,17354803.4596069
376,0.0
407,81842349.4520677
2,1, 8,21, 0,14,15.00,30.00,SummerDesignDay
9,17354803.4596069
376,0.0
407,82923875.0512091
2,1, 8,21, 0,14,30.00,45.00,SummerDesignDay
9,17354803.4596069
376,0.0
407,83974550.4564108
2,1, 8,21, 0,14,45.00,60.00,SummerDesignDay
9,17354803.4596069
376,0.0
407,84983757.7547791
2,1, 8,21, 0,15, 0.00,15.00,SummerDesignDay
9,17354803.4596069
376,0.0
407,85569161.2048234
2,1, 8,21, 0,15,15.00,30.00,SummerDesignDay
9,17354803.4596069
376,0.0
407,86089353.632823
2,1, 8,21, 0,15,30.00,45.00,SummerDesignDay
9,17354803.4596069
376,0.0
407,86891458.6380019
2,1, 8,21, 0,15,45.00,60.00,SummerDesignDay
9,17354803.4596069
376,0.0
407,87835152.7363452
2,1, 8,21, 0,16, 0.00,15.00,SummerDesignDay
9,17354803.4596069
376,0.0
407,88327433.9513591
2,1, 8,21, 0,16,15.00,30.00,SummerDesignDay
9,17354803.4596069
376,0.0
407,88672001.9444788
2,1, 8,21, 0,16,30.00,45.00,SummerDesignDay
9,17354803.4596069
376,0.0
407,88883939.2577644
2,1, 8,21, 0,16,45.00,60.00,SummerDesignDay
9,17354803.4596069
376,0.0
407,88979793.1520534
2,1, 8,21, 0,17, 0.00,15.00,SummerDesignDay
9,17354803.4596069
376,0.0
407,88815594.167018
2,1, 8,21, 0,17,15.00,30.00,SummerDesignDay
9,17354803.4596069
376,0.0
407,88437027.2564707
2,1, 8,21, 0,17,30.00,45.00,SummerDesignDay
9,17354803.4596069
376,0.0
407,87965326.1384498
2,1, 8,21, 0,17,45.00,60.00,SummerDesignDay
9,17354803.4596069
376,0.0
407,87372283.6271457
2,1, 8,21, 0,18, 0.00,15.00,SummerDesignDay
9,17354803.4596069
376,0.0
407,86483981.5868195
2,1, 8,21, 0,18,15.00,30.00,SummerDesignDay
9,17354803.4596069
376,0.0
407,85369055.6621152
2,1, 8,21, 0,18,30.00,45.00,SummerDesignDay
9,17354803.4596069
376,0.0
407,83996690.406213
2,1, 8,21, 0,18,45.00,60.00,SummerDesignDay
9,17354803.4596069
376,0.0
407,82330147.01995
2,1, 8,21, 0,19, 0.00,15.00,SummerDesignDay
9,17354803.4596069
376,0.0
407,79818214.1592072
2,1, 8,21, 0,19,15.00,30.00,SummerDesignDay
9,17354803.4596069
376,0.0
407,76928218.0501882
2,1, 8,21, 0,19,30.00,45.00,SummerDesignDay
9,17354803.4596069
376,0.0
407,73210375.7293611
2,1, 8,21, 0,19,45.00,60.00,SummerDesignDay
9,17354803.4596069
376,0.0
407,69105133.1803869
2,1, 8,21, 0,20, 0.00,15.00,SummerDesignDay
9,17354803.4596069
376,0.0
407,66536528.439396
2,1, 8,21, 0,20,15.00,30.00,SummerDesignDay
9,17354803.4596069
376,0.0
407,64566671.5377424
2,1, 8,21, 0,20,30.00,45.00,SummerDesignDay
9,17354803.4596069
376,0.0
407,62765879.7302018
2,1, 8,21, 0,20,45.00,60.00,SummerDesignDay
9,17354803.4596069
376,0.0
407,61040978.6358837
2,1, 8,21, 0,21, 0.00,15.00,SummerDesignDay
9,17354803.4596069
376,0.0
407,59494472.1502881
2,1, 8,21, 0,21,15.00,30.00,SummerDesignDay
9,17354803.4596069
376,0.0
407,57986579.3554097
2,1, 8,21, 0,21,30.00,45.00,SummerDesignDay
9,17354803.4596069
376,0.0
407,56504992.4377625
2,1, 8,21, 0,21,45.00,60.00,SummerDesignDay
9,17354803.4596069
376,0.0
407,55046315.0590266
2,1, 8,21, 0,22, 0.00,15.00,SummerDesignDay
9,17354803.4596069
376,0.0
407,53614607.2144462
2,1, 8,21, 0,22,15.00,30.00,SummerDesignDay
9,17354803.4596069
376,0.0
407,52208234.5243842
2,1, 8,21, 0,22,30.00,45.00,SummerDesignDay
9,17354803.4596069
376,0.0
407,50825987.0610203
2,1, 8,21, 0,22,45.00,60.00,SummerDesignDay
9,17354803.4596069
376,0.0
407,49467009.1826639
2,1, 8,21, 0,23, 0.00,15.00,SummerDesignDay
9,17354803.4596069
376,0.0
407,0.0
2,1, 8,21, 0,23,15.00,30.00,SummerDesignDay
9,17354803.4596069
376,0.0
407,0.0
2,1, 8,21, 0,23,30.00,45.00,SummerDesignDay
9,17354803.4596069
376,0.0
407,0.0
2,1, 8,21, 0,23,45.00,60.00,SummerDesignDay
9,17354803.4596069
376,0.0
407,0.0
2,1, 8,21, 0,24, 0.00,15.00,SummerDesignDay
9,17354803.4596069
376,0.0
407,0.0
2,1, 8,21, 0,24,15.00,30.00,SummerDesignDay
9,17354803.4596069
376,0.0
407,0.0
2,1, 8,21, 0,24,30.00,45.00,SummerDesignDay
9,17354803.4596069
376,0.0
407,0.0
2,1, 8,21, 0,24,45.00,60.00,SummerDesignDay
9,17354803.4596069
376,0.0
407,0.0
1,ACAPULCO ANN CLG .4% CONDNS WB=>MDB,  16.77, -99.75,  -6.00,   5.00
2,1, 8,21, 0, 1, 0.00,15.00,SummerDesignDay
9,17354803.4596069
376,0.0
407,0.0
2,1, 8,21, 0, 1,15.00,30.00,SummerDesignDay
9,17354803.4596069
376,0.0
407,0.0
2,1, 8,21, 0, 1,30.00,45.00,SummerDesignDay
9,17354803.4596069
376,0.0
407,0.0
2,1, 8,21, 0, 1,45.00,60.00,SummerDesignDay
9,17354803.4596069
376,0.0
407,0.0
2,1, 8,21, 0, 2, 0.00,15.00,SummerDesignDay
9,17354803.4596069
376,0.0
407,0.0
2,1, 8,21, 0, 2,15.00,30.00,SummerDesignDay
9,17354803.4596069
376,0.0
407,0.0
2,1, 8,21, 0, 2,30.00,45.00,SummerDesignDay
9,17354803.4596069
376,0.0
407,0.0
2,1, 8,21, 0, 2,45.00,60.00,SummerDesignDay
9,17354803.4596069
376,0.0
407,0.0
2,1, 8,21, 0, 3, 0.00,15.00,SummerDesignDay
9,17354803.4596069
376,0.0
407,0.0
2,1, 8,21, 0, 3,15.00,30.00,SummerDesignDay
9,17354803.4596069
376,0.0
407,0.0
2,1, 8,21, 0, 3,30.00,45.00,SummerDesignDay
9,17354803.4596069
376,0.0
407,0.0
2,1, 8,21, 0, 3,45.00,60.00,SummerDesignDay
9,17354803.4596069
376,0.0
407,0.0
2,1, 8,21, 0, 4, 0.00,15.00,SummerDesignDay
9,17354803.4596069
376,0.0
407,0.0
2,1, 8,21, 0, 4,15.00,30.00,SummerDesignDay
9,17354803.4596069
376,0.0
407,0.0
2,1, 8,21, 0, 4,30.00,45.00,SummerDesignDay
9,17354803.4596069
376,0.0
407,0.0
2,1, 8,21, 0, 4,45.00,60.00,SummerDesignDay
9,17354803.4596069
376,0.0
407,0.0
2,1, 8,21, 0, 5, 0.00,15.00,SummerDesignDay
9,17354803.4596069
376,0.0
407,0.0
2,1, 8,21, 0, 5,15.00,30.00,SummerDesignDay
9,17354803.4596069
376,0.0
407,0.0
2,1, 8,21, 0, 5,30.00,45.00,SummerDesignDay
9,17354803.4596069
376,0.0
407,0.0
2,1, 8,21, 0, 5,45.00,60.00,SummerDesignDay
9,17354803.4596069
376,0.0
407,0.0
2,1, 8,21, 0, 6, 0.00,15.00,SummerDesignDay
9,17354803.4596069
376,0.0
407,0.0
2,1, 8,21, 0, 6,15.00,30.00,SummerDesignDay
9,17354803.4596069
376,0.0
407,0.0
2,1, 8,21, 0, 6,30.00,45.00,SummerDesignDay
9,17354803.4596069
376,0.0
407,0.0
2,1, 8,21, 0, 6,45.00,60.00,SummerDesignDay
9,17354803.4596069
376,0.0
407,0.0
2,1, 8,21, 0, 7, 0.00,15.00,SummerDesignDay
9,17354803.4596069
376,0.0
407,152418789.787817
2,1, 8,21, 0, 7,15.00,30.00,SummerDesignDay
9,17354803.4596069
376,0.0
407,0.0
2,1, 8,21, 0, 7,30.00,45.00,SummerDesignDay
9,17354803.4596069
376,0.0
407,49295661.8226374
2,1, 8,21, 0, 7,45.00,60.00,SummerDesignDay
9,17354803.4596069
376,0.0
407,75744343.6016836
2,1, 8,21, 0, 8, 0.00,15.00,SummerDesignDay
9,17354803.4596069
376,0.0
407,47437550.7622679
2,1, 8,21, 0, 8,15.00,30.00,SummerDesignDay
9,17354803.4596069
376,0.0
407,54454081.8596224
2,1, 8,21, 0, 8,30.00,45.00,SummerDesignDay
9,17354803.4596069
376,0.0
407,54863173.7519035